LAMMPS data file via write_data, version 7 Feb 2024, timestep = 0, units = metal

25340 atoms
4 atom types

-0.09910835095545843 106.43277135095542 xlo xhi
-0.5005068763733564 61.00288287637334 ylo yhi
-0.6529686715295786 55.945694671529594 zlo zhi

Masses

1 140.115997
2 15.9994
3 150.360001
4 157.25

Pair Coeffs # buck/coul/long

1 0 0.01 0
2 9547.96 0.21916 32
3 0 0.01 0
4 0 0.01 0

Atoms # charge

1 1 4 1.4462736052409209 2.224315317473251 0.8163116497568679 0 0 0
2 2 -2 0.5018494627436038 0.27680021111099007 1.5875832733180826 0 0 0
3 2 -2 2.8216271695374275 0.3184388345528336 0.028389028792039243 0 0 0
4 2 -2 3.6593161311547107 2.3076202889703987 1.6570902978022248 0 0 0
5 2 -2 1.474874120324793 2.2187305315948356 3.2456712465159665 0 0 0
6 2 -2 6.909272375195182 0.42987333592425503 1.6679004677358114 0 0 0
7 2 -2 8.154745266582271 2.247160986664989 3.244115297565884 0 0 0
8 2 -2 4.780402729696732 0.3894094936344634 3.2760621433345416 0 0 0
9 1 4 8.168169651212857 2.224222617408382 0.816114815571235 0 0 0
10 1 4 4.7760725721592925 0.3442444372958314 1.0268827515147734 0 0 0
11 2 -2 5.738104721393172 2.2965886302879923 -0.08587659779228766 0 0 0
12 1 4 11.470371411166434 0.335140914191982 0.871216319619975 0 0 0
13 2 -2 11.44447197664722 0.40634641004773636 3.236060392604169 0 0 0
14 2 -2 12.65919486961106 2.1720714104062715 0.2157688536830006 0 0 0
15 2 -2 9.218315754122115 0.28536444122145543 0.3896001180794653 0 0 0
16 2 -2 10.327774885957263 2.379774115725869 1.5878498882362786 0 0 0
17 1 4 14.798925718736621 2.251699802619107 0.8826329980395188 0 0 0
18 2 -2 13.737854610124577 0.3124346588274802 1.7765868101931788 0 0 0
19 2 -2 15.782098426549366 0.1214149830968905 0.02735212842448311 0 0 0
20 2 -2 14.809947546797229 2.2706969989713373 3.2666141730968383 0 0 0
21 2 -2 16.91156116678116 2.1445864565822026 1.5879329185614466 0 0 0
22 2 -2 20.308024865235964 0.16271769902867075 1.670891210653346 0 0 0
23 2 -2 18.109163214459453 0.3291180876721295 3.245919650185475 0 0 0
24 1 4 18.126966523056605 0.3554384007342653 0.8166799144865338 0 0 0
25 2 -2 19.28279681146763 2.23462505971076 0.38976486427068063 0 0 0
26 1 4 24.794887453329988 0.31185711477490297 0.8725284133696896 0 0 0
27 2 -2 24.870316284962914 0.2934614520157428 3.2353253152005217 0 0 0
28 2 -2 22.483768197227835 0.005839860636675438 0.015530450339945294 0 0 0
29 2 -2 23.554835147355334 2.010141757877451 1.6930203766786682 0 0 0
30 2 -2 21.352264456419114 2.2550769068030037 3.1958746630089974 0 0 0
31 1 4 21.43566505100117 2.255759958362872 0.9075894037465305 0 0 0
32 1 4 28.08234705296802 2.2242856654298375 0.8180968773283214 0 0 0
33 2 -2 27.138255617915394 0.276831955010789 1.589651677009901 0 0 0
34 2 -2 25.877071129215118 2.2867639524702956 0.39226731249395036 0 0 0
35 2 -2 29.457098320854243 0.31844548904914055 0.030116215129202265 0 0 0
36 2 -2 28.110671037026773 2.2191943448396794 3.247336104904154 0 0 0
37 2 -2 30.294146907387482 2.307686470962436 1.6582298787847474 0 0 0
38 2 -2 33.54360563157412 0.42928390224809143 1.669455238158342 0 0 0
39 2 -2 31.415083486348532 0.38952741225840026 3.277263334325255 0 0 0
40 1 4 31.41084364851059 0.3441026457255717 1.0284611694147878 0 0 0
41 2 -2 32.37340681833139 2.2963203906052065 -0.08375409585688405 0 0 0
42 1 4 38.103349946947134 0.3350798099823548 0.8721649094939933 0 0 0
43 2 -2 38.077839117467 0.4060899463216338 3.236669050177445 0 0 0
44 2 -2 35.851889536765334 0.285593572953671 0.39025386421638736 0 0 0
45 2 -2 36.96079880321781 2.379754710188253 1.5892818035422254 0 0 0
46 2 -2 34.78800064412482 2.247087267921244 3.2454805052053333 0 0 0
47 1 4 34.80155575379339 2.224240120131206 0.8175015140539338 0 0 0
48 1 4 41.43197497924391 2.2518340719527896 0.8829901098185482 0 0 0
49 2 -2 40.37157788892325 0.3127110725082702 1.7773658881517054 0 0 0
50 2 -2 39.292207930317545 2.1719138858192757 0.21673325197800541 0 0 0
51 2 -2 42.41533358924924 0.12060524062725608 0.027022845018656608 0 0 0
52 2 -2 41.4431446870332 2.2711522463789313 3.2672092943420004 0 0 0
53 2 -2 43.544546676966284 2.1442041460111847 1.5873498146472105 0 0 0
54 2 -2 44.74268099993435 0.3291613538911239 3.2451845623749995 0 0 0
55 1 4 44.760265267049135 0.3553242233438361 0.8161819365928579 0 0 0
56 2 -2 45.91640773941449 2.2347800860243003 0.38938646496073265 0 0 0
57 2 -2 49.11743235901433 0.005066441959252835 0.012992818278177951 0 0 0
58 2 -2 46.94151121841662 0.1622398398853068 1.6693406710283167 0 0 0
59 2 -2 50.187967223380554 2.009614574072654 1.690849317577555 0 0 0
60 2 -2 47.985312579499904 2.2553024411859925 3.194111596867275 0 0 0
61 1 4 48.06925494247793 2.255774398350898 0.9059150819945887 0 0 0
62 1 4 54.71571538158796 2.224197750226761 0.8156006280532281 0 0 0
63 1 4 51.42856457003245 0.31161971812548617 0.8702711275485299 0 0 0
64 2 -2 53.77165257206618 0.2768112929755857 1.5868128966833035 0 0 0
65 2 -2 51.503628710879276 0.29360359188325635 3.2334554360639736 0 0 0
66 2 -2 52.51045493476251 2.2868309882121904 0.3898218727027151 0 0 0
67 2 -2 54.74371149363088 2.2191980552943322 3.244823095155974 0 0 0
68 2 -2 56.09091087696609 0.3182222986395498 0.027356075428403053 0 0 0
69 2 -2 56.927276748251906 2.3076036254606453 1.6556076756673463 0 0 0
70 2 -2 58.046896829055186 0.3893443679965885 3.2754246260164344 0 0 0
71 1 4 58.04358097087768 0.3440954234975497 1.0265192633177291 0 0 0
72 2 -2 59.007028961604654 2.2964005908684335 -0.08598951660453384 0 0 0
73 2 -2 62.48323471391502 0.2857365481712202 0.38900654192825485 0 0 0
74 2 -2 60.17538795820833 0.4296642416637369 1.6680721538961938 0 0 0
75 2 -2 63.59150683519776 2.379974864812534 1.5880486804128173 0 0 0
76 2 -2 61.41922139478544 2.2472995799366684 3.2444528260120675 0 0 0
77 1 4 61.43301830534548 2.2243600632291414 0.8156623437931375 0 0 0
78 1 4 68.06142985388765 2.2519277484741558 0.8822313780114864 0 0 0
79 1 4 64.73378066868138 0.33521698300126884 0.8710958233907554 0 0 0
80 2 -2 67.00082960929998 0.3126278583212365 1.776422950820355 0 0 0
81 2 -2 64.70779504775446 0.4061918188405009 3.235969981880153 0 0 0
82 2 -2 65.92230359054096 2.1720630660565394 0.2155144920282906 0 0 0
83 2 -2 68.07219343093871 2.27100423832747 3.2665792723113163 0 0 0
84 2 -2 69.04490412248428 0.12093857252445778 0.026593612965640067 0 0 0
85 2 -2 70.17372867063825 2.144461391436951 1.5870564922299164 0 0 0
86 2 -2 71.37122516173724 0.3291016943647452 3.2451247944157213 0 0 0
87 1 4 71.38936202601809 0.35540243650960357 0.8157448884785055 0 0 0
88 2 -2 75.74566874283772 0.005885355844533465 0.013681100305425775 0 0 0
89 2 -2 73.57020240261068 0.16200929614170442 1.6698494150346361 0 0 0
90 2 -2 74.6145698008134 2.255293180468716 3.1941482043470493 0 0 0
91 1 4 74.69846214326178 2.2554364124856603 0.905840628105299 0 0 0
92 2 -2 72.54563982093232 2.2347062823006683 0.3892241081339111 0 0 0
93 1 4 78.0580938194407 0.3115828819679053 0.8711271890113956 0 0 0
94 2 -2 80.40097580169652 0.27676179645406723 1.588171780128526 0 0 0
95 2 -2 78.1329910164684 0.29343833591352164 3.234746393609583 0 0 0
96 2 -2 79.14011769579018 2.286776009723126 0.39071687781784187 0 0 0
97 2 -2 76.81773658790347 2.0095931707688783 1.6915842222524242 0 0 0
98 1 4 81.3452642542883 2.224201468592938 0.8164177650194696 0 0 0
99 2 -2 82.72003211124951 0.31819497630750565 0.028338135440008932 0 0 0
100 2 -2 83.55694181473525 2.3073709219994827 1.6566547994063239 0 0 0
101 2 -2 81.37343854539353 2.219163145816461 3.246152952459199 0 0 0
102 2 -2 84.67639606793388 0.3891200751130081 3.2767516310392013 0 0 0
103 1 4 84.67295238925148 0.34388276793207934 1.02758615140214 0 0 0
104 2 -2 89.11223725999862 0.2857585334554959 0.38891774867764783 0 0 0
105 2 -2 86.80458716880138 0.4299223078839635 1.6688102935916824 0 0 0
106 2 -2 88.04870973520858 2.247204308906193 3.2455306161689337 0 0 0
107 1 4 88.0621318006628 2.2242630290107477 0.815589314676456 0 0 0
108 2 -2 85.63662708201517 2.296517437088326 -0.08555087669868905 0 0 0
109 1 4 91.36289871580686 0.3351137115893253 0.8705010817265298 0 0 0
110 2 -2 93.62982656183448 0.31261082581264665 1.7757971646532376 0 0 0
111 2 -2 91.33709026359782 0.40614547336229734 3.2358402543392093 0 0 0
112 2 -2 92.55118553915776 2.1718682279563395 0.21436123756938563 0 0 0
113 2 -2 90.22057596084775 2.3801127820996317 1.5878622308425627 0 0 0
114 1 4 94.69045629530385 2.2517796571345885 0.8813488636792646 0 0 0
115 2 -2 95.67353828491578 0.12081003593818364 0.025324806108494285 0 0 0
116 2 -2 96.8027919541983 2.14416520862745 1.5860082907459223 0 0 0
117 2 -2 94.70146059333 2.2709456977098217 3.266167513205038 0 0 0
118 2 -2 98.00051488604375 0.3293116837605293 3.2451884756608402 0 0 0
119 1 4 98.01879843863159 0.35531847994971055 0.8151720002083833 0 0 0
120 2 -2 100.1994715722723 0.16132092875073412 1.6699273170930522 0 0 0
121 2 -2 101.24428671958796 2.255363368265105 3.19319535928917 0 0 0
122 1 4 101.3286749259986 2.2550280310867206 0.905301906009889 0 0 0
123 2 -2 99.17540616593665 2.234534735897872 0.38918266614578184 0 0 0
124 1 4 104.68964803722022 0.31157228170772777 0.8709537171528183 0 0 0
125 2 -2 104.76530543067504 0.29309684904074135 3.2340661112144304 0 0 0
126 2 -2 105.77188093642255 2.286999794650992 0.3905401136691263 0 0 0
127 2 -2 102.37446233768422 0.006455531902913565 0.013349859504301407 0 0 0
128 2 -2 103.44870781312981 2.0089583005034295 1.6912898547337591 0 0 0
129 1 4 1.511917365482562 6.098097956412823 1.0271690885437694 0 0 0
130 2 -2 0.418213111338947 7.996784701942357 1.7773620574338884 0 0 0
131 2 -2 0.5229617700269443 4.208221428983343 1.670953342496524 0 0 0
132 2 -2 1.5519704115983697 6.069954888298893 3.2771201901348177 0 0 0
133 2 -2 2.7213850478769364 4.2907011585830865 -0.08487836808373074 0 0 0
134 2 -2 2.4628982185902926 7.8045630813728915 0.027293924488784715 0 0 0
135 2 -2 3.772863488583418 6.082695949205219 1.6559365181573764 0 0 0
136 1 4 8.132311693859545 6.045280152933166 1.0273438307512481 0 0 0
137 2 -2 5.958108029903335 5.904410020648728 -0.08498661120039451 0 0 0
138 2 -2 6.989114063846214 7.845512494610688 1.6708565216844882 0 0 0
139 2 -2 6.988002813309555 4.095602097141806 1.656000641516161 0 0 0
140 2 -2 8.08885888691644 6.021809839413433 3.276314808851095 0 0 0
141 2 -2 4.790312556779555 8.013805178406656 3.2462891243376304 0 0 0
142 2 -2 4.806478297745225 4.160875375464835 3.2412498169866333 0 0 0
143 1 4 4.806626645776548 4.162512202027538 0.9570913880921971 0 0 0
144 1 4 4.808160549951246 8.039806990483521 0.8167046034891222 0 0 0
145 1 4 11.478750164856912 7.996043082931803 0.8720001162918812 0 0 0
146 1 4 11.476051957784396 4.155712163500432 0.882764810908578 0 0 0
147 2 -2 11.5544871584977 7.977804061852103 3.2348739575977863 0 0 0
148 2 -2 10.325299129518356 6.039486262951696 1.7764486092800145 0 0 0
149 2 -2 12.476131965940903 6.0490861388370725 0.21654945404261147 0 0 0
150 2 -2 11.48843126783136 4.132219896409702 3.267795122248583 0 0 0
151 2 -2 9.164918280104919 7.690373343162609 0.01470277804389969 0 0 0
152 2 -2 9.13309967983072 4.369257090859051 0.028213669789719172 0 0 0
153 1 4 14.786742796630614 6.079650531626345 0.8836468965645301 0 0 0
154 2 -2 13.822568343533739 7.961189662740787 1.5888305010865185 0 0 0
155 2 -2 13.686968362443649 4.161551804407912 1.6563534554372585 0 0 0
156 2 -2 14.76070766709278 6.07636350444755 3.2683819028884553 0 0 0
157 2 -2 15.927181243769356 4.268526679735366 0.21662871234010625 0 0 0
158 2 -2 16.142194386483155 8.003327940924708 0.029481375806505315 0 0 0
159 2 -2 19.00034805616383 6.311352810163724 0.015697018722700802 0 0 0
160 2 -2 20.227193124846476 8.113846761652137 1.6701146404780045 0 0 0
161 2 -2 20.20517092027365 4.379617470549796 1.6921297782692193 0 0 0
162 2 -2 16.99380075174406 6.132223438745197 1.7776279774238533 0 0 0
163 2 -2 18.099415467054094 8.072900792480002 3.278051434153474 0 0 0
164 2 -2 18.060655332775745 4.0972328741555915 3.2346905336158613 0 0 0
165 1 4 18.11270672866199 4.158010497990408 0.8709618867355731 0 0 0
166 1 4 18.095161336311634 8.028085906744197 1.0288243991231931 0 0 0
167 1 4 21.47693413217919 6.094360673422837 0.9083458215897102 0 0 0
168 1 4 24.786730976916726 8.019429061205438 0.8732509545439202 0 0 0
169 1 4 24.781721110316425 4.139758746749552 0.907846445141864 0 0 0
170 2 -2 24.76083314060889 8.090572838498769 3.237674866005171 0 0 0
171 2 -2 23.931829634826464 6.09609839557357 1.6937637000719483 0 0 0
172 2 -2 24.820345430066606 4.065035895743737 3.19567290924346 0 0 0
173 2 -2 22.53550797357028 7.969795987933642 0.39159468564859234 0 0 0
174 2 -2 22.565220852020335 4.163500216196887 0.5026990571947317 0 0 0
175 2 -2 21.518019747957144 6.161711686911415 3.1966751345031317 0 0 0
176 1 4 28.14791931651495 6.098306784897835 1.0289944011777254 0 0 0
177 2 -2 27.054431929349217 7.997354512895559 1.7788007217615225 0 0 0
178 2 -2 26.206027558257276 6.171712598258394 0.017499367848996323 0 0 0
179 2 -2 27.15929955873646 4.208325407040869 1.6720757649418518 0 0 0
180 2 -2 28.187436695111316 6.070106331592336 3.2785272019658307 0 0 0
181 2 -2 29.35757917743588 4.291399908354926 -0.08331553603873834 0 0 0
182 2 -2 29.09878411194297 7.8044552307118655 0.02919246625875975 0 0 0
183 2 -2 32.592538143654174 5.904449852345579 -0.08321480589489556 0 0 0
184 2 -2 33.62267748154541 7.845382515098454 1.6726914091986747 0 0 0
185 2 -2 33.62207569777291 4.095832062136071 1.6574497397542332 0 0 0
186 2 -2 30.407772077481958 6.082778546961835 1.6580770654918713 0 0 0
187 2 -2 31.42450448513512 8.013821872495537 3.248080410803753 0 0 0
188 2 -2 31.441150264420322 4.160541423771936 3.2427382250714123 0 0 0
189 1 4 31.441284646172758 4.162668510796171 0.9587592639911466 0 0 0
190 1 4 31.442426447638866 8.03993325586961 0.8186392031478075 0 0 0
191 1 4 34.76592120303273 6.045423943987249 1.0288659757988836 0 0 0
192 1 4 38.112061835624566 7.996128677061522 0.8731628354472599 0 0 0
193 1 4 38.10925417477451 4.155752589918858 0.8837203943156462 0 0 0
194 2 -2 38.18758062920894 7.977833391195519 3.235962412394621 0 0 0
195 2 -2 36.9587205432813 6.039953874675985 1.7773680422075582 0 0 0
196 2 -2 38.121738557573444 4.132377944069553 3.2683781032008636 0 0 0
197 2 -2 35.79810277392824 7.691232758028868 0.01654369156116979 0 0 0
198 2 -2 35.76701734826542 4.3696535779094425 0.029565593592826036 0 0 0
199 2 -2 34.72290314808594 6.021789513245381 3.277799264442943 0 0 0
200 1 4 41.41993251783816 6.0798903748585325 0.8839484061283159 0 0 0
201 2 -2 40.455236045536914 7.961402193833297 1.5895284400961402 0 0 0
202 2 -2 39.10958458088072 6.049066802999985 0.21737875605669088 0 0 0
203 2 -2 40.32036920174544 4.16144645612953 1.6566657666789935 0 0 0
204 2 -2 41.39389394567568 6.076452060850194 3.2683929421425435 0 0 0
205 2 -2 42.5609151803466 4.268947302100214 0.2165946794075453 0 0 0
206 2 -2 42.77484111670224 8.003328929575963 0.03001135936358929 0 0 0
207 2 -2 45.633520072674735 6.312173135285975 0.014070302289980206 0 0 0
208 2 -2 43.62745775599332 6.1324142265083905 1.7776168590367951 0 0 0
209 2 -2 44.732464266456525 8.073404721674688 3.2777264301743263 0 0 0
210 2 -2 44.6939072828314 4.0969412172817785 3.234047527132279 0 0 0
211 1 4 44.74606530124093 4.15810404379276 0.8703784607714675 0 0 0
212 1 4 44.72835088412785 8.028254123688303 1.0284447874189928 0 0 0
213 1 4 48.1105509443164 6.09456998053139 0.9068735975256689 0 0 0
214 2 -2 50.56609842788146 6.096268959015252 1.6914540420276691 0 0 0
215 2 -2 49.16904751059071 7.969823258946665 0.39000368919525247 0 0 0
216 2 -2 46.860386069002224 8.113959434735893 1.6691453821997546 0 0 0
217 2 -2 49.19881649149952 4.163571600529386 0.5012406758217198 0 0 0
218 2 -2 46.83825270819528 4.380557470493286 1.6907842762962173 0 0 0
219 2 -2 48.15175020031366 6.161844228406438 3.1952167081676466 0 0 0
220 1 4 51.42047288186249 8.019682711287555 0.8709032546792592 0 0 0
221 1 4 54.78156778113429 6.098519546945543 1.0264321077806844 0 0 0
222 1 4 51.41544767646052 4.1398826663458035 0.9054573289557544 0 0 0
223 2 -2 53.687659694144436 7.997361599142748 1.7761056724443915 0 0 0
224 2 -2 51.394202106244045 8.090681317499364 3.2357443193595383 0 0 0
225 2 -2 52.84045352421703 6.1716572616276215 0.014408779244654397 0 0 0
226 2 -2 53.792937865959495 4.208302302419538 1.669310087615543 0 0 0
227 2 -2 51.45353470772654 4.064914318006406 3.1933494705059413 0 0 0
228 2 -2 54.82033105814834 6.07016682891262 3.276000374953533 0 0 0
229 2 -2 55.991944025418164 4.291729825773462 -0.08610982115271743 0 0 0
230 2 -2 55.73267805284312 7.804945211604411 0.026735968824048533 0 0 0
231 2 -2 59.2263742645963 5.904680909197911 -0.08558988455331548 0 0 0
232 2 -2 57.04102713610856 6.083126398932209 1.655394575585986 0 0 0
233 2 -2 58.0571959454336 8.013813118310361 3.246145205274195 0 0 0
234 2 -2 58.07322797741821 4.1608485219516105 3.2406765275566167 0 0 0
235 1 4 58.07425153065226 4.162772790420785 0.9564930927098725 0 0 0
236 1 4 58.07537071292206 8.040167725085213 0.816243823007032 0 0 0
237 1 4 61.397737740977504 6.0455420424930955 1.027173414764 0 0 0
238 2 -2 63.589516967002346 6.039428136202804 1.7765623554406207 0 0 0
239 2 -2 62.43116229544002 7.690732678449727 0.014837519991337365 0 0 0
240 2 -2 60.255131992697514 7.846050554627345 1.670393344851823 0 0 0
241 2 -2 62.398791533554544 4.369698013175865 0.027706914685656444 0 0 0
242 2 -2 60.254074705116146 4.0959347465979175 1.6556326283198957 0 0 0
243 2 -2 61.35395368247602 6.02215226212197 3.2763546564825905 0 0 0
244 1 4 64.74239844953507 7.996267798532821 0.8718690751552373 0 0 0
245 1 4 68.04944245687163 6.079842873484364 0.8831345161829935 0 0 0
246 1 4 64.73948753354367 4.155951444788901 0.8825941975663578 0 0 0
247 2 -2 67.08527809907329 7.961378290490929 1.588698934052768 0 0 0
248 2 -2 64.81758974589184 7.978014060650231 3.234884482685696 0 0 0
249 2 -2 65.7398179978899 6.049332969210538 0.21617135254840597 0 0 0
250 2 -2 66.9498418784784 4.161566089894469 1.6559300108284436 0 0 0
251 2 -2 64.7519170412339 4.132226001631933 3.268118012819004 0 0 0
252 2 -2 68.02325251672448 6.076419215709158 3.267984849352138 0 0 0
253 2 -2 69.40443242329796 8.003302412882501 0.02885647150577488 0 0 0
254 2 -2 70.25644414436442 6.13230987966383 1.7769199575498502 0 0 0
255 2 -2 71.3615360158286 8.073299308043834 3.2772423666959583 0 0 0
256 2 -2 72.2626429638486 6.312150531837971 0.013523365694134747 0 0 0
257 2 -2 71.32276185830432 4.0971151251657005 3.2339267392686946 0 0 0
258 1 4 71.37518666554224 4.158092538746408 0.8698684175225532 0 0 0
259 1 4 71.35760515881233 8.02817001066644 1.0278660650382425 0 0 0
260 2 -2 69.18999836003809 4.2687102347239145 0.21576483471818617 0 0 0
261 1 4 74.73973577500685 6.094358577230162 0.9068492214242234 0 0 0
262 2 -2 75.79846237321306 7.969605160279351 0.39023833170570094 0 0 0
263 2 -2 73.4897964859422 8.113739429677878 1.6690738805920284 0 0 0
264 2 -2 75.828088197149 4.163363559777102 0.5018049288455867 0 0 0
265 2 -2 73.46723280122661 4.380804104567174 1.6908159921451522 0 0 0
266 2 -2 74.78110588410712 6.161710479074131 3.195620041059831 0 0 0
267 1 4 78.04981330040263 8.019451186266378 0.8715951891859842 0 0 0
268 1 4 78.04471064654295 4.139654059173333 0.9062272948346812 0 0 0
269 2 -2 80.31759464577765 7.997264982166969 1.7773389240012336 0 0 0
270 2 -2 78.02380906920499 8.090573969503229 3.2365904320668584 0 0 0
271 2 -2 77.19546607367717 6.096084353706318 1.692307588095276 0 0 0
272 2 -2 79.46959906010284 6.171711901220025 0.015425629716268444 0 0 0
273 2 -2 80.42211760442045 4.208311192051879 1.6706306685592203 0 0 0
274 2 -2 78.0828932810878 4.064794389330003 3.1945210811795954 0 0 0
275 1 4 81.41091625742853 6.098338201149377 1.027613875819672 0 0 0
276 2 -2 81.44985145092373 6.069921333587792 3.2774682610694645 0 0 0
277 2 -2 82.62067698810716 4.291033217912279 -0.08504244978382904 0 0 0
278 2 -2 82.36226772452339 7.804327337082946 0.027384463439385196 0 0 0
279 2 -2 83.6702647683813 6.082670079940193 1.6564215026791744 0 0 0
280 2 -2 84.68693964290996 8.013442572696292 3.2472694837327847 0 0 0
281 2 -2 84.70289462453648 4.160700347076281 3.2417563396437634 0 0 0
282 1 4 84.70366282534584 4.162583342075527 0.9573600039875604 0 0 0
283 1 4 84.70473853644934 8.039811697009197 0.8167171860133225 0 0 0
284 1 4 88.027170611347 6.04531315068842 1.0273422714904057 0 0 0
285 2 -2 89.06081905182722 7.6899071546839135 0.014169009279959222 0 0 0
286 2 -2 85.85533481172283 5.904513099023163 -0.08511000697826727 0 0 0
287 2 -2 86.88477042660371 7.845995540498193 1.670565439487532 0 0 0
288 2 -2 89.02819262451054 4.369625701260139 0.02722997613662642 0 0 0
289 2 -2 86.88362361424673 4.095777959050272 1.6560551161007449 0 0 0
290 2 -2 87.98328022223944 6.022043477643026 3.2767838952206363 0 0 0
291 1 4 91.37154233175958 7.996002627803498 0.8711862657537002 0 0 0
292 1 4 91.3685905407381 4.155884738570085 0.8820148628164037 0 0 0
293 2 -2 91.44701238907514 7.9776997460769135 3.234943300884311 0 0 0
294 2 -2 90.21885465446717 6.038938068656103 1.7766465713106525 0 0 0
295 2 -2 92.36873320843706 6.049185036962353 0.21512948115708666 0 0 0
296 2 -2 93.57854054133074 4.161373886772235 1.6550937011135554 0 0 0
297 2 -2 91.38127497624968 4.132019416584 3.2686224972770295 0 0 0
298 2 -2 93.71437062083976 7.961258800186736 1.5879801599001089 0 0 0
299 1 4 94.67861618074747 6.079650196984454 0.882401408989356 0 0 0
300 2 -2 94.65223825240959 6.076062702238715 3.267560319974476 0 0 0
301 2 -2 95.81884732418783 4.268496381953089 0.21479878880727732 0 0 0
302 2 -2 96.03333342702848 8.003662431881107 0.02804944734637909 0 0 0
303 2 -2 96.88520759807075 6.132203931062785 1.7765320326204135 0 0 0
304 2 -2 97.99139414156829 8.073287880437555 3.276620160058579 0 0 0
305 2 -2 97.9521199933196 4.096817545929054 3.2334988370524798 0 0 0
306 1 4 98.00447431168006 4.158090499893972 0.8691786244930467 0 0 0
307 1 4 97.98689119571974 8.028171718426284 1.0271203472472537 0 0 0
308 1 4 101.3700506234388 6.094241094537433 0.9066044015040409 0 0 0
309 2 -2 98.89036997032058 6.3122806790473796 0.012056231660393636 0 0 0
310 2 -2 100.11947156592058 8.113531202136814 1.6679653471149511 0 0 0
311 2 -2 100.09642305822554 4.381853266983072 1.6902501871066384 0 0 0
312 2 -2 101.41187692737888 6.1619927904505785 3.1951582051164626 0 0 0
313 1 4 104.68134075560846 8.019251732158537 0.8713157585501786 0 0 0
314 1 4 104.67588550789733 4.1395306160229195 0.9058771566442115 0 0 0
315 2 -2 104.65539456622459 8.090785556758217 3.2359507109509695 0 0 0
316 2 -2 103.82707733877353 6.096049217317356 1.691840156875133 0 0 0
317 2 -2 106.10167847671228 6.171068328240818 0.014961703041177067 0 0 0
318 2 -2 104.71444952271742 4.064403935987766 3.193996867882282 0 0 0
319 2 -2 102.42910782119735 7.969420956964221 0.39022903432805517 0 0 0
320 2 -2 102.45839609148409 4.163138787932853 0.5023201471007849 0 0 0
321 1 4 1.4791397678215112 9.93658782274441 0.8829867306914135 0 0 0
322 2 -2 0.3673573465353141 11.847217907565424 1.6567240213214962 0 0 0
323 2 -2 2.6085229042637703 11.954842447658677 0.2171564633216118 0 0 0
324 2 -2 3.5921538071711976 9.82923799746723 1.587885598160095 0 0 0
325 2 -2 1.4902940535092737 9.956164041814642 3.267526838740775 0 0 0
326 2 -2 6.886934121512264 12.067214866478196 1.692413801242462 0 0 0
327 2 -2 8.034674044176118 9.940186581861985 3.1948995979347163 0 0 0
328 2 -2 4.742250152948499 11.782346341002262 3.2354549015683087 0 0 0
329 1 4 4.794524453228512 11.843804459673196 0.8714143792706095 0 0 0
330 1 4 8.118659114774774 9.940411541639978 0.9070330047214648 0 0 0
331 2 -2 5.964978347390453 9.919504631401875 0.39104783404341326 0 0 0
332 1 4 11.46588904105913 11.8254402492288 0.9077346391110664 0 0 0
333 2 -2 11.504162758572335 11.750423088818923 3.195688870728761 0 0 0
334 2 -2 12.560915316497322 9.97211073952356 0.39202903771071246 0 0 0
335 2 -2 9.248306090004057 11.84911917266845 0.5040038541789932 0 0 0
336 2 -2 10.238188115868807 9.694205283024242 1.6925636207151646 0 0 0
337 1 4 14.76686294596182 9.90920616264416 0.818171527307911 0 0 0
338 2 -2 13.843794288588759 11.894129041960438 1.6723276520009287 0 0 0
339 2 -2 16.043215538892238 11.97591440707665 -0.08235164262702221 0 0 0
340 2 -2 14.795145147624474 9.904147537391422 3.2468913022160786 0 0 0
341 2 -2 16.97968559864421 9.992075821995483 1.659482514439735 0 0 0
342 2 -2 20.306751618829875 11.782004491232222 1.6590441556741544 0 0 0
343 2 -2 18.12579530525571 11.84660533933907 3.2438072099006243 0 0 0
344 1 4 18.126575333165974 11.848253660427382 0.9597677274982132 0 0 0
345 2 -2 19.059114167091096 9.982170041386928 -0.08266418119936986 0 0 0
346 1 4 24.792570162072465 11.841741760109844 0.885489787063821 0 0 0
347 2 -2 24.805538206935182 11.81776417976591 3.2711583015508094 0 0 0
348 2 -2 22.451546749540366 12.055902617802987 0.0306757984998602 0 0 0
349 2 -2 23.64433253787218 10.065342689439905 1.5905548016590476 0 0 0
350 2 -2 21.472135539412697 9.93195754103609 3.2463972573252855 0 0 0
351 1 4 21.485488461866108 9.909187755214333 0.8185603822302749 0 0 0
352 1 4 28.11459561560708 9.936961152736277 0.8848940108177016 0 0 0
353 2 -2 27.002960032958082 11.847616910178996 1.6586339840853506 0 0 0
354 2 -2 29.243494426676435 11.95458118506074 0.21918927369907246 0 0 0
355 2 -2 25.97528028978505 9.856937778588904 0.21824928461688214 0 0 0
356 2 -2 28.125770746052083 9.956528623932076 3.2690803999947073 0 0 0
357 2 -2 30.226852689210137 9.829323144690624 1.5898739769790078 0 0 0
358 2 -2 33.52111229278036 12.06714809584701 1.6939868814226964 0 0 0
359 2 -2 31.376809008694 11.782562788997788 3.236894264255757 0 0 0
360 1 4 31.428978770353748 11.843773537191284 0.8732772273870482 0 0 0
361 2 -2 32.59899902516221 9.919591236852865 0.3931808735384195 0 0 0
362 1 4 38.09901012679098 11.825715746955884 0.9090092284631076 0 0 0
363 2 -2 38.13714141748744 11.750897570011142 3.1968948042289647 0 0 0
364 2 -2 35.881843690558995 11.848872001749468 0.5047312922079872 0 0 0
365 2 -2 36.871961726661 9.694702072519902 1.6939480917592897 0 0 0
366 2 -2 34.66854266325832 9.94015606816531 3.19621221333368 0 0 0
367 1 4 34.75234204982744 9.940478795377059 0.9086093692075207 0 0 0
368 1 4 41.39988421446748 9.909447010166973 0.8185991519538635 0 0 0
369 2 -2 40.47605852942112 11.894433791471592 1.6732665916326497 0 0 0
370 2 -2 39.194269763475575 9.972404727159837 0.39226543843486184 0 0 0
371 2 -2 41.42841894401511 9.90428939975827 3.2470348190549903 0 0 0
372 2 -2 42.67519018803874 11.975929012247734 -0.08179295276062798 0 0 0
373 2 -2 43.612927900320805 9.992362548579255 1.6590981037556332 0 0 0
374 2 -2 44.759264050358816 11.846613181183399 3.243439025165788 0 0 0
375 1 4 44.75962882975965 11.848420080350557 0.9594566310003516 0 0 0
376 2 -2 45.69247330123736 9.98239676310243 -0.08369374089162634 0 0 0
377 2 -2 49.08570433701538 12.0562468962179 0.0287433178297939 0 0 0
378 2 -2 46.94031351952566 11.782157915708881 1.657677664128959 0 0 0
379 2 -2 50.278023658776256 10.065359187810454 1.5882662200910538 0 0 0
380 2 -2 48.105460767094684 9.932116043448186 3.2449459976246775 0 0 0
381 1 4 48.11902070006876 9.909280203342567 0.8171721771652722 0 0 0
382 1 4 54.74813807858716 9.937084468687559 0.8824932303776937 0 0 0
383 1 4 51.426271439830025 11.841794439338411 0.8833477925535965 0 0 0
384 2 -2 53.63658820364053 11.847539346897658 1.6564059974039234 0 0 0
385 2 -2 51.43866346988297 11.817736276696953 3.2689645448966176 0 0 0
386 2 -2 52.60928457712764 9.857150303079909 0.2154673775085996 0 0 0
387 2 -2 54.758635591270256 9.956290279239196 3.2669433588191943 0 0 0
388 2 -2 55.87681391533855 11.954349409271703 0.21644425185962757 0 0 0
389 2 -2 56.85994796960309 9.829582588103031 1.587786115011052 0 0 0
390 2 -2 58.009151003455884 11.782709548815507 3.23504280548168 0 0 0
391 1 4 58.06172258042198 11.843780599744456 0.8711898333066564 0 0 0
392 2 -2 59.23140068437209 9.919726785661148 0.3905652745380549 0 0 0
393 2 -2 62.513307591836615 11.849222280470523 0.5027459078260453 0 0 0
394 2 -2 60.15331199933515 12.066538319909805 1.6922323028527573 0 0 0
395 2 -2 63.50250990173545 9.695047545017577 1.6927023104823515 0 0 0
396 2 -2 61.30002332440776 9.940155580020564 3.195222132603323 0 0 0
397 1 4 61.383959675386805 9.940916572941164 0.907101176558945 0 0 0
398 1 4 68.0296317171988 9.909355894485603 0.817654258020097 0 0 0
399 1 4 64.72971614200975 11.825836721150402 0.90777413736583 0 0 0
400 2 -2 67.10612352102676 11.894453617936058 1.6723784153938837 0 0 0
401 2 -2 64.7674544459409 11.751014430098532 3.195996795214628 0 0 0
402 2 -2 65.82446943875327 9.972267913061527 0.3917355206527852 0 0 0
403 2 -2 68.0576868869502 9.904315670597821 3.2468543023845235 0 0 0
404 2 -2 69.30510595625326 11.975831984225483 -0.08282506663373347 0 0 0
405 2 -2 70.24191021155576 9.992229539592268 1.6585576691837192 0 0 0
406 2 -2 71.38815063012898 11.84643391883429 3.243210065405111 0 0 0
407 1 4 71.3888704764355 11.848267324120409 0.9589782507232384 0 0 0
408 2 -2 72.32161308495822 9.982082391632355 -0.0840322624764391 0 0 0
409 2 -2 75.71461293301152 12.056048536956474 0.02911177232967438 0 0 0
410 2 -2 73.56936303994273 11.781947095755294 1.6577980404065136 0 0 0
411 2 -2 74.73477373025607 9.931951307417688 3.2453265878614026 0 0 0
412 1 4 74.74826567536606 9.909097505847702 0.8171248620052162 0 0 0
413 1 4 78.05568786959024 11.84164764988648 0.8839706039125073 0 0 0
414 2 -2 80.26613909111897 11.847308786190931 1.6575446153848026 0 0 0
415 2 -2 78.06802207663947 11.817801853392151 3.2696997923994275 0 0 0
416 2 -2 79.23864437204811 9.8568641366417 0.21645177167789878 0 0 0
417 2 -2 76.9073622126161 10.065180785127081 1.5889245827558864 0 0 0
418 1 4 81.37751338523569 9.93686767854333 0.8835180883132863 0 0 0
419 2 -2 82.50627726866766 11.954353097992987 0.21728799870569457 0 0 0
420 2 -2 83.48907161993823 9.829157747062691 1.5888681016743744 0 0 0
421 2 -2 81.38813426775161 9.956238344952169 3.268615470389819 0 0 0